# vtk DataFile Version 3.0
ASCII
DATASET STRUCTURED_POINTS
DIMENSIONS 10 12 1
SPACING 30 25 1

POINT_DATA 120
VECTORS WindVector float
0.049518 -0.0497214 0 
0.0489192 -0.048635 0 
0.0481852 -0.0472727 0 
0.0473473 -0.045696 0 
0.0464728 -0.044035 0 
0.0456595 -0.0424784 0 
0.0450145 -0.0412318 0 
0.0446206 -0.0404528 0 
0.0445079 -0.0401964 0 
0.0446482 -0.0404068 0 
0.0535666 -0.0580699 0 
0.0547941 -0.0604802 0 
0.054283 -0.0595651 0 
0.0496526 -0.0508612 0 
0.0427605 -0.0374655 0 
0.0381139 -0.0282028 0 
0.0396558 -0.0312298 0 
0.0425755 -0.0367664 0 
0.0449003 -0.0409778 0 
0.0464556 -0.0436988 0 
0.0520385 -0.054731 0 
0.0519408 -0.0551155 0 
0.0517819 -0.0553534 0 
0.0514298 -0.0555355 0 
0.0476045 -0.0507618 0 
0.0414751 -0.0430876 0 
0.0444066 -0.0445305 0 
0.0476643 -0.0457124 0 
0.0488918 -0.0466196 0 
0.048938 -0.0476949 0 
0.0524826 -0.0553658 0 
0.0533703 -0.0594804 0 
0.0528466 -0.0580839 0 
0.050554 -0.0538453 0 
0.0483735 -0.0515247 0 
0.0480142 -0.0499858 0 
0.0510198 -0.0479439 0 
0.0505743 -0.0482972 0 
0.0469082 -0.0515697 0 
0.0482795 -0.0514712 0 
0.0504466 -0.0471605 0 
0.0513616 -0.0498737 0 
0.0521417 -0.0524583 0 
0.0522272 -0.0533789 0 
0.0516961 -0.0563287 0 
0.051428 -0.0637354 0 
0.0506971 -0.0564969 0 
0.0479701 -0.053564 0 
0.0473253 -0.0533752 0 
0.0497195 -0.0531052 0 
0.0462519 -0.038988 0 
0.0460055 -0.0388349 0 
0.0491405 -0.0436226 0 
0.0523728 -0.0474329 0 
0.0540057 -0.0494691 0 
0.0534668 -0.0540297 0 
0.0532497 -0.0572337 0 
0.0527953 -0.0578878 0 
0.0524031 -0.0560173 0 
0.0528957 -0.0548676 0 
0.0502853 -0.0435397 0 
0.0455261 -0.0375011 0 
0.0454066 -0.0374568 0 
0.037749 -0.0293171 0 
0.0509755 -0.0435781 0 
0.0562807 -0.0509203 0 
0.0561742 -0.0591822 0 
0.0582958 -0.0854584 0 
0.0519279 -0.0545835 0 
0.055181 -0.0559625 0 
0.0547671 -0.0486712 0 
0.0560184 -0.050577 0 
0.0536109 -0.0468342 0 
0.0503313 -0.0406155 0 
0.0659998 -0.0507344 0 
0.0673813 -0.0536742 0 
0.0608134 -0.057298 0 
0.0596194 -0.0600527 0 
0.0604582 -0.0583053 0 
0.0597208 -0.0570577 0 
0.0633466 -0.0610002 0 
0.0634126 -0.0607321 0 
0.0600268 -0.0505637 0 
0.0629474 -0.0501697 0 
0.0697307 -0.0532627 0 
0.0661344 -0.0542547 0 
0.0666158 -0.0575017 0 
0.0766623 -0.0638355 0 
0.0722619 -0.0617274 0 
0.064511 -0.0578615 0 
0.059838 -0.0527347 0 
0.0607756 -0.0530966 0 
0.0609192 -0.0500526 0 
0.0621375 -0.0479906 0 
0.0643859 -0.0494242 0 
0.0676586 -0.0540116 0 
0.0684247 -0.0564866 0 
0.0655517 -0.0563094 0 
0.0656995 -0.0569211 0 
0.0639658 -0.0562494 0 
0.0613221 -0.0398268 0 
0.061637 -0.0335452 0 
0.0622554 -0.0330419 0 
0.0656324 -0.0445755 0 
0.0717394 -0.0561669 0 
0.072525 -0.058379 0 
0.0618544 -0.0543717 0 
0.0612422 -0.0541424 0 
0.0627361 -0.0544952 0 
0.0629291 -0.0546134 0 
0.0603607 -0.0442578 0 
0.0609295 -0.0400153 0 
0.061259 -0.0329554 0 
0.061243 -0.0270679 0 
0.0623687 -0.0342797 0 
0.0645696 -0.0458541 0 
0.0651236 -0.0513181 0 
0.063988 -0.0528912 0 
0.0631054 -0.053283 0 
0.06265 -0.0534147 0 
